Program Version,EnergyPlus, Version 8.3.0-6d97d074ea, YMD=2015.06.08 13:40
1,5,Environment Title[],Latitude[deg],Longitude[deg],Time Zone[],Elevation[m]
2,6,Day of Simulation[],Month[],Day of Month[],DST Indicator[1=yes 0=no],Hour[],StartMinute[],EndMinute[],DayType
3,3,Cumulative Day of Simulation[],Month[],Day of Month[],DST Indicator[1=yes 0=no],DayType  ! When Daily Report Variables Requested
4,2,Cumulative Days of Simulation[],Month[]  ! When Monthly Report Variables Requested
5,1,Cumulative Days of Simulation[] ! When Run Period Report Variables Requested
496,11,ZONE001,Zone Thermal Comfort ASHRAE 55 Simple Model Summer or Winter Clothes Not Comfortable Time [hr] !RunPeriod [Value,Min,Month,Day,Hour,Minute,Max,Month,Day,Hour,Minute]
End of Data Dictionary
1,CHICAGO_IL_USA HEATING 99% CONDITIONS,  37.42,  -5.90,   1.00,  31.00
2,1, 1,21, 0, 1, 0.00,60.00,WinterDesignDay
6,-18.1
7,0.0
1,CHICAGO_IL_USA HEATING 99% CONDITIONS,  37.42,  -5.90,   1.00,  31.00
2,1, 1,21, 0, 1, 0.00,60.00,WinterDesignDay
6,-18.1
7,0.0
2,1, 1,21, 0, 1, 0.00,60.00,WinterDesignDay
6,-18.1
7,0.0
End of Data
Number of Records Written=        2352