Program Version,EnergyPlus, Version 8.3.0-6d97d074ea, YMD=2015.06.08 13:40
1,5,Environment Title[],Latitude[deg],Longitude[deg],Time Zone[],Elevation[m]
2,6,Day of Simulation[],Month[],Day of Month[],DST Indicator[1=yes 0=no],Hour[],StartMinute[],EndMinute[],DayType
3,3,Cumulative Day of Simulation[],Month[],Day of Month[],DST Indicator[1=yes 0=no],DayType  ! When Daily Report Variables Requested
4,2,Cumulative Days of Simulation[],Month[]  ! When Monthly Report Variables Requested
5,1,Cumulative Days of Simulation[] ! When Run Period Report Variables Requested
6,1,Environment,Site Outdoor Air Drybulb Temperature [C] !Hourly
7,1,SOUTH PERIMETER,Zone People Occupant Count [] !Hourly
8,1,EAST PERIMETER,Zone People Occupant Count [] !Hourly
9,1,NORTH PERIMETER,Zone People Occupant Count [] !Hourly
10,1,WEST PERIMETER,Zone People Occupant Count [] !Hourly
11,1,CORE,Zone People Occupant Count [] !Hourly
73,1,SOUTH PERIMETER,Zone Lights Total Heating Energy [J] !Hourly
95,1,EAST PERIMETER,Zone Lights Total Heating Energy [J] !Hourly
117,1,NORTH PERIMETER,Zone Lights Total Heating Energy [J] !Hourly
139,1,WEST PERIMETER,Zone Lights Total Heating Energy [J] !Hourly
161,1,CORE,Zone Lights Total Heating Energy [J] !Hourly
193,1,SOUTH PERIMETER,Zone Electric Equipment Total Heating Energy [J] !Hourly
205,1,EAST PERIMETER,Zone Electric Equipment Total Heating Energy [J] !Hourly
217,1,NORTH PERIMETER,Zone Electric Equipment Total Heating Energy [J] !Hourly
229,1,WEST PERIMETER,Zone Electric Equipment Total Heating Energy [J] !Hourly
241,1,CORE,Zone Electric Equipment Total Heating Energy [J] !Hourly
242,1,SOUTH PERIMETER,Zone Infiltration Sensible Heat Loss Energy [J] !Hourly
243,1,SOUTH PERIMETER,Zone Infiltration Sensible Heat Gain Energy [J] !Hourly
244,1,SOUTH PERIMETER,Zone Infiltration Air Change Rate [ach] !Hourly
245,1,EAST PERIMETER,Zone Infiltration Sensible Heat Loss Energy [J] !Hourly
246,1,EAST PERIMETER,Zone Infiltration Sensible Heat Gain Energy [J] !Hourly
247,1,EAST PERIMETER,Zone Infiltration Air Change Rate [ach] !Hourly
248,1,NORTH PERIMETER,Zone Infiltration Sensible Heat Loss Energy [J] !Hourly
249,1,NORTH PERIMETER,Zone Infiltration Sensible Heat Gain Energy [J] !Hourly
250,1,NORTH PERIMETER,Zone Infiltration Air Change Rate [ach] !Hourly
251,1,WEST PERIMETER,Zone Infiltration Sensible Heat Loss Energy [J] !Hourly
252,1,WEST PERIMETER,Zone Infiltration Sensible Heat Gain Energy [J] !Hourly
253,1,WEST PERIMETER,Zone Infiltration Air Change Rate [ach] !Hourly
254,1,CORE,Zone Infiltration Sensible Heat Loss Energy [J] !Hourly
255,1,CORE,Zone Infiltration Sensible Heat Gain Energy [J] !Hourly
256,1,CORE,Zone Infiltration Air Change Rate [ach] !Hourly
329,1,PLENUM,Zone Air System Sensible Heating Rate [W] !Hourly
330,1,PLENUM,Zone Air System Sensible Cooling Rate [W] !Hourly
331,1,PLENUM,Zone Air Temperature [C] !Hourly
364,1,SOUTH PERIMETER,Zone Air System Sensible Heating Rate [W] !Hourly
365,1,SOUTH PERIMETER,Zone Air System Sensible Cooling Rate [W] !Hourly
366,1,SOUTH PERIMETER,Zone Air Temperature [C] !Hourly
399,1,EAST PERIMETER,Zone Air System Sensible Heating Rate [W] !Hourly
400,1,EAST PERIMETER,Zone Air System Sensible Cooling Rate [W] !Hourly
401,1,EAST PERIMETER,Zone Air Temperature [C] !Hourly
434,1,NORTH PERIMETER,Zone Air System Sensible Heating Rate [W] !Hourly
435,1,NORTH PERIMETER,Zone Air System Sensible Cooling Rate [W] !Hourly
436,1,NORTH PERIMETER,Zone Air Temperature [C] !Hourly
469,1,WEST PERIMETER,Zone Air System Sensible Heating Rate [W] !Hourly
470,1,WEST PERIMETER,Zone Air System Sensible Cooling Rate [W] !Hourly
471,1,WEST PERIMETER,Zone Air Temperature [C] !Hourly
504,1,CORE,Zone Air System Sensible Heating Rate [W] !Hourly
505,1,CORE,Zone Air System Sensible Cooling Rate [W] !Hourly
506,1,CORE,Zone Air Temperature [C] !Hourly
End of Data Dictionary
1,CHICAGO_IL_USA HEATING 99% CONDITIONS,  37.42,  -5.90,   1.00,  31.00
2,1, 1,21, 0, 1, 0.00,60.00,WinterDesignDay
6,-18.1
7,0.0
8,0.0
9,0.0
10,0.0
11,0.0
73,0.0
95,0.0
117,0.0
139,0.0
161,0.0
193,0.0
205,0.0
217,0.0
229,0.0
241,0.0
242,1321658.84476004
243,0.0
244,0.136638494367625
245,563925.848064743
246,0.0
247,0.135541404384978
248,1320924.47342207
249,0.0
250,0.13662964605735
251,563925.848064742
252,0.0
253,0.135541404384978
254,2467993.37046035
255,0.0
256,0.130168435352766
329,0.0
330,0.0
331,9.02645399281064
364,0.0
365,0.0
366,15.5480537601424
399,0.0
400,0.0
401,15.3995891488753
434,0.0
435,0.0
436,15.5293585164079
469,0.0
470,0.0
471,15.3995891488752
504,0.0
505,0.0
506,17.3698729902247
2,1, 1,21, 0, 2, 0.00,60.00,WinterDesignDay
6,-18.1
7,0.0
8,0.0
9,0.0
10,0.0
11,0.0
73,0.0
95,0.0
117,0.0
139,0.0
161,0.0
193,0.0
205,0.0
217,0.0
229,0.0
241,0.0
242,1321658.84473194
243,0.0
244,0.136638494367286
245,563925.848052379
246,0.0
247,0.135541404384634
248,1320924.47339384
249,0.0
250,0.136629646057009
251,563925.848052378
252,0.0
253,0.135541404384633
254,2467993.37040972
255,0.0
256,0.130168435352441
329,0.0
330,0.0
331,9.0264539895902
364,0.0
365,0.0
366,15.548053759427
399,0.0
400,0.0
401,15.3995891481408
434,0.0
435,0.0
436,15.5293585156892
469,0.0
470,0.0
471,15.3995891481408
504,0.0
505,0.0
506,17.3698729894971
2,1, 1,21, 0, 3, 0.00,60.00,WinterDesignDay
6,-18.1
7,0.0
8,0.0
9,0.0
10,0.0
11,0.0
73,0.0
95,0.0
117,0.0
139,0.0
161,0.0
193,0.0
205,0.0
217,0.0
229,0.0
241,0.0
242,1321658.84470725
243,0.0
244,0.136638494366988
245,563925.848041513
246,0.0
247,0.13554140438433
248,1320924.47336902
249,0.0
250,0.136629646056712
251,563925.848041513
252,0.0
253,0.135541404384331
254,2467993.37036523
255,0.0
256,0.130168435352156
329,0.0
330,0.0
331,9.02645398676006
364,0.0
365,0.0
366,15.5480537587983
399,0.0
400,0.0
401,15.3995891474954
434,0.0
435,0.0
436,15.5293585150575
469,0.0
470,0.0
471,15.3995891474954
504,0.0
505,0.0
506,17.3698729888578
2,1, 1,21, 0, 4, 0.00,60.00,WinterDesignDay
6,-18.1
7,0.0
8,0.0
9,0.0
10,0.0
11,0.0
73,0.0
95,0.0
117,0.0
139,0.0
161,0.0
193,0.0
205,0.0
217,0.0
229,0.0
241,0.0
242,1321658.84468555
243,0.0
244,0.136638494366725
245,563925.848031964
246,0.0
247,0.135541404384063
248,1320924.47334722
249,0.0
250,0.136629646056449
251,563925.848031965
252,0.0
253,0.135541404384063
254,2467993.37032614
255,0.0
256,0.130168435351903
329,0.0
330,0.0
331,9.02645398427291
364,0.0
365,0.0
366,15.5480537582459
399,0.0
400,0.0
401,15.3995891469282
434,0.0
435,0.0
436,15.5293585145024
469,0.0
470,0.0
471,15.3995891469282
504,0.0
505,0.0
506,17.3698729882959
2,1, 1,21, 0, 5, 0.00,60.00,WinterDesignDay
6,-18.1
7,0.0
8,0.0
9,0.0
10,0.0
11,0.0
73,0.0
95,0.0
117,0.0
139,0.0
161,0.0
193,0.0
205,0.0
217,0.0
229,0.0
241,0.0
242,1321658.84466648
243,0.0
244,0.136638494366496
245,563925.848023573
246,0.0
247,0.135541404383828
248,1320924.47332805
249,0.0
250,0.136629646056217
251,563925.848023573
252,0.0
253,0.135541404383827
254,2467993.37029178
255,0.0
256,0.130168435351683
329,0.0
330,0.0
331,9.0264539820872
364,0.0
365,0.0
366,15.5480537577604
399,0.0
400,0.0
401,15.3995891464298
434,0.0
435,0.0
436,15.5293585140146
469,0.0
470,0.0
471,15.3995891464298
504,0.0
505,0.0
506,17.3698729878021
2,1, 1,21, 0, 6, 0.00,60.00,WinterDesignDay
6,-18.1
7,0.0
8,0.0
9,0.0
10,0.0
11,0.0
73,0.0
95,0.0
117,0.0
139,0.0
161,0.0
193,0.0
205,0.0
217,0.0
229,0.0
241,0.0
242,1321658.84464972
243,0.0
244,0.136638494366295
245,563925.848016198
246,0.0
247,0.135541404383622
248,1320924.47331121
249,0.0
250,0.136629646056013
251,563925.848016198
252,0.0
253,0.135541404383624
254,2467993.37026159
255,0.0
256,0.130168435351488
329,0.0
330,0.0
331,9.02645398016639
364,0.0
365,0.0
366,15.5480537573338
399,0.0
400,0.0
401,15.3995891459917
434,0.0
435,0.0
436,15.5293585135858
469,0.0
470,0.0
471,15.3995891459917
504,0.0
505,0.0
506,17.3698729873682
2,1, 1,21, 0, 7, 0.00,60.00,WinterDesignDay
6,-18.1
7,0.0
8,0.0
9,0.0
10,0.0
11,0.0
73,0.0
95,0.0
117,0.0
139,0.0
161,0.0
193,0.0
205,0.0
217,0.0
229,0.0
241,0.0
242,1321658.84463499
243,0.0
244,0.136638494366119
245,563925.848009718
246,0.0
247,0.135541404383445
248,1320924.47329641
249,0.0
250,0.136629646055835
251,563925.848009718
252,0.0
253,0.135541404383445
254,2467993.37023505
255,0.0
256,0.130168435351317
329,0.0
330,0.0
331,9.02645397847837
364,0.0
365,0.0
366,15.5480537569589
399,0.0
400,0.0
401,15.3995891456067
434,0.0
435,0.0
436,15.529358513209
469,0.0
470,0.0
471,15.3995891456067
504,0.0
505,0.0
506,17.3698729869869
2,1, 1,21, 0, 8, 0.00,60.00,WinterDesignDay
6,-18.1
7,0.0
8,0.0
9,0.0
10,0.0
11,0.0
73,0.0
95,0.0
117,0.0
139,0.0
161,0.0
193,0.0
205,0.0
217,0.0
229,0.0
241,0.0
242,1321658.84462205
243,0.0
244,0.136638494365963
245,563925.848004023
246,0.0
247,0.135541404383286
248,1320924.47328341
249,0.0
250,0.136629646055676
251,563925.848004023
252,0.0
253,0.135541404383283
254,2467993.37021173
255,0.0
256,0.130168435351164
329,0.0
330,0.0
331,9.02645397699493
364,0.0
365,0.0
366,15.5480537566294
399,0.0
400,0.0
401,15.3995891452684
434,0.0
435,0.0
436,15.529358512878
469,0.0
470,0.0
471,15.3995891452684
504,0.0
505,0.0
506,17.3698729866518
2,1, 1,21, 0, 9, 0.00,60.00,WinterDesignDay
6,-18.1
7,0.0
8,0.0
9,0.0
10,0.0
11,0.0
73,0.0
95,0.0
117,0.0
139,0.0
161,0.0
193,0.0
205,0.0
217,0.0
229,0.0
241,0.0
242,1321658.84461067
243,0.0
244,0.136638494365825
245,563925.847999018
246,0.0
247,0.135541404383145
248,1320924.47327198
249,0.0
250,0.13662964605554
251,563925.847999018
252,0.0
253,0.135541404383143
254,2467993.37019124
255,0.0
256,0.130168435351036
329,0.0
330,0.0
331,9.02645397569128
364,0.0
365,0.0
366,15.5480537563398
399,0.0
400,0.0
401,15.3995891449711
434,0.0
435,0.0
436,15.529358512587
469,0.0
470,0.0
471,15.3995891449711
504,0.0
505,0.0
506,17.3698729863572
2,1, 1,21, 0,10, 0.00,60.00,WinterDesignDay
6,-18.1
7,0.0
8,0.0
9,0.0
10,0.0
11,0.0
73,0.0
95,0.0
117,0.0
139,0.0
161,0.0
193,0.0
205,0.0
217,0.0
229,0.0
241,0.0
242,1321658.84460068
243,0.0
244,0.136638494365704
245,563925.84799462
246,0.0
247,0.135541404383024
248,1320924.47326193
249,0.0
250,0.136629646055418
251,563925.84799462
252,0.0
253,0.135541404383021
254,2467993.37017323
255,0.0
256,0.130168435350919
329,0.0
330,0.0
331,9.02645397454562
364,0.0
365,0.0
366,15.5480537560853
399,0.0
400,0.0
401,15.3995891447099
434,0.0
435,0.0
436,15.5293585123313
469,0.0
470,0.0
471,15.3995891447099
504,0.0
505,0.0
506,17.3698729860984
2,1, 1,21, 0,11, 0.00,60.00,WinterDesignDay
6,-18.1
7,0.0
8,0.0
9,0.0
10,0.0
11,0.0
73,0.0
95,0.0
117,0.0
139,0.0
161,0.0
193,0.0
205,0.0
217,0.0
229,0.0
241,0.0
242,1321658.84459189
243,0.0
244,0.136638494365597
245,563925.847990755
246,0.0
247,0.135541404382912
248,1320924.47325311
249,0.0
250,0.136629646055314
251,563925.847990755
252,0.0
253,0.135541404382911
254,2467993.3701574
255,0.0
256,0.130168435350817
329,0.0
330,0.0
331,9.02645397353881
364,0.0
365,0.0
366,15.5480537558617
399,0.0
400,0.0
401,15.3995891444803
434,0.0
435,0.0
436,15.5293585121066
469,0.0
470,0.0
471,15.3995891444803
504,0.0
505,0.0
506,17.369872985871
2,1, 1,21, 0,12, 0.00,60.00,WinterDesignDay
6,-18.1
7,0.0
8,0.0
9,0.0
10,0.0
11,0.0
73,0.0
95,0.0
117,0.0
139,0.0
161,0.0
193,0.0
205,0.0
217,0.0
229,0.0
241,0.0
242,1321658.84458417
243,0.0
244,0.136638494365507
245,563925.847987357
246,0.0
247,0.13554140438282
248,1320924.47324535
249,0.0
250,0.136629646055218
251,563925.847987357
252,0.0
253,0.135541404382818
254,2467993.37014349
255,0.0
256,0.130168435350725
329,0.0
330,0.0
331,9.02645397265403
364,0.0
365,0.0
366,15.5480537556652
399,0.0
400,0.0
401,15.3995891442785
434,0.0
435,0.0
436,15.5293585119091
469,0.0
470,0.0
471,15.3995891442785
504,0.0
505,0.0
506,17.3698729856711
2,1, 1,21, 0,13, 0.00,60.00,WinterDesignDay
6,-18.1
7,0.0
8,0.0
9,0.0
10,0.0
11,0.0
73,0.0
95,0.0
117,0.0
139,0.0
161,0.0
193,0.0
205,0.0
217,0.0
229,0.0
241,0.0
242,1321658.84457739
243,0.0
244,0.136638494365424
245,563925.847984372
246,0.0
247,0.135541404382735
248,1320924.47323853
249,0.0
250,0.136629646055137
251,563925.847984372
252,0.0
253,0.135541404382733
254,2467993.37013127
255,0.0
256,0.130168435350648
329,0.0
330,0.0
331,9.02645397187647
364,0.0
365,0.0
366,15.5480537554924
399,0.0
400,0.0
401,15.3995891441011
434,0.0
435,0.0
436,15.5293585117356
469,0.0
470,0.0
471,15.3995891441012
504,0.0
505,0.0
506,17.3698729854954
2,1, 1,21, 0,14, 0.00,60.00,WinterDesignDay
6,-18.1
7,0.0
8,0.0
9,0.0
10,0.0
11,0.0
73,0.0
95,0.0
117,0.0
139,0.0
161,0.0
193,0.0
205,0.0
217,0.0
229,0.0
241,0.0
242,1321658.84457143
243,0.0
244,0.136638494365353
245,563925.847981749
246,0.0
247,0.135541404382661
248,1320924.47323254
249,0.0
250,0.136629646055065
251,563925.847981749
252,0.0
253,0.135541404382662
254,2467993.37012053
255,0.0
256,0.130168435350579
329,0.0
330,0.0
331,9.02645397119315
364,0.0
365,0.0
366,15.5480537553406
399,0.0
400,0.0
401,15.3995891439454
434,0.0
435,0.0
436,15.5293585115831
469,0.0
470,0.0
471,15.3995891439454
504,0.0
505,0.0
506,17.3698729853411
2,1, 1,21, 0,15, 0.00,60.00,WinterDesignDay
6,-18.1
7,0.0
8,0.0
9,0.0
10,0.0
11,0.0
73,0.0
95,0.0
117,0.0
139,0.0
161,0.0
193,0.0
205,0.0
217,0.0
229,0.0
241,0.0
242,1321658.84456619
243,0.0
244,0.13663849436529
245,563925.847979443
246,0.0
247,0.135541404382598
248,1320924.47322728
249,0.0
250,0.136629646055002
251,563925.847979444
252,0.0
253,0.135541404382598
254,2467993.37011109
255,0.0
256,0.130168435350519
329,0.0
330,0.0
331,9.02645397059264
364,0.0
365,0.0
366,15.5480537552072
399,0.0
400,0.0
401,15.3995891438084
434,0.0
435,0.0
436,15.529358511449
469,0.0
470,0.0
471,15.3995891438084
504,0.0
505,0.0
506,17.3698729852054
2,1, 1,21, 0,16, 0.00,60.00,WinterDesignDay
6,-18.1
7,0.0
8,0.0
9,0.0
10,0.0
11,0.0
73,0.0
95,0.0
117,0.0
139,0.0
161,0.0
193,0.0
205,0.0
217,0.0
229,0.0
241,0.0
242,1321658.84456158
243,0.0
244,0.136638494365235
245,563925.847977418
246,0.0
247,0.13554140438254
248,1320924.47322265
249,0.0
250,0.136629646054946
251,563925.847977417
252,0.0
253,0.135541404382541
254,2467993.37010279
255,0.0
256,0.130168435350463
329,0.0
330,0.0
331,9.02645397006492
364,0.0
365,0.0
366,15.54805375509
399,0.0
400,0.0
401,15.3995891436881
434,0.0
435,0.0
436,15.5293585113312
469,0.0
470,0.0
471,15.3995891436881
504,0.0
505,0.0
506,17.3698729850862
2,1, 1,21, 0,17, 0.00,60.00,WinterDesignDay
6,-18.1
7,0.0
8,0.0
9,0.0
10,0.0
11,0.0
73,0.0
95,0.0
117,0.0
139,0.0
161,0.0
193,0.0
205,0.0
217,0.0
229,0.0
241,0.0
242,1321658.84455754
243,0.0
244,0.136638494365185
245,563925.847975637
246,0.0
247,0.135541404382491
248,1320924.47321858
249,0.0
250,0.136629646054897
251,563925.847975637
252,0.0
253,0.135541404382491
254,2467993.3700955
255,0.0
256,0.130168435350418
329,0.0
330,0.0
331,9.02645396960115
364,0.0
365,0.0
366,15.5480537549871
399,0.0
400,0.0
401,15.3995891435823
434,0.0
435,0.0
436,15.5293585112277
469,0.0
470,0.0
471,15.3995891435823
504,0.0
505,0.0
506,17.3698729849814
2,1, 1,21, 0,18, 0.00,60.00,WinterDesignDay
6,-18.1
7,0.0
8,0.0
9,0.0
10,0.0
11,0.0
73,0.0
95,0.0
117,0.0
139,0.0
161,0.0
193,0.0
205,0.0
217,0.0
229,0.0
241,0.0
242,1321658.84455398
243,0.0
244,0.136638494365139
245,563925.847974072
246,0.0
247,0.135541404382449
248,1320924.47321501
249,0.0
250,0.136629646054854
251,563925.847974072
252,0.0
253,0.135541404382449
254,2467993.3700891
255,0.0
256,0.130168435350376
329,0.0
330,0.0
331,9.02645396919359
364,0.0
365,0.0
366,15.5480537548965
399,0.0
400,0.0
401,15.3995891434894
434,0.0
435,0.0
436,15.5293585111367
469,0.0
470,0.0
471,15.3995891434894
504,0.0
505,0.0
506,17.3698729848894
2,1, 1,21, 0,19, 0.00,60.00,WinterDesignDay
6,-18.1
7,0.0
8,0.0
9,0.0
10,0.0
11,0.0
73,0.0
95,0.0
117,0.0
139,0.0
161,0.0
193,0.0
205,0.0
217,0.0
229,0.0
241,0.0
242,1321658.84455086
243,0.0
244,0.136638494365104
245,563925.847972698
246,0.0
247,0.135541404382408
248,1320924.47321187
249,0.0
250,0.136629646054815
251,563925.847972697
252,0.0
253,0.135541404382407
254,2467993.37008347
255,0.0
256,0.130168435350341
329,0.0
330,0.0
331,9.02645396883542
364,0.0
365,0.0
366,15.548053754817
399,0.0
400,0.0
401,15.3995891434077
434,0.0
435,0.0
436,15.5293585110568
469,0.0
470,0.0
471,15.3995891434077
504,0.0
505,0.0
506,17.3698729848085
2,1, 1,21, 0,20, 0.00,60.00,WinterDesignDay
6,-18.1
7,0.0
8,0.0
9,0.0
10,0.0
11,0.0
73,0.0
95,0.0
117,0.0
139,0.0
161,0.0
193,0.0
205,0.0
217,0.0
229,0.0
241,0.0
242,1321658.84454811
243,0.0
244,0.13663849436507
245,563925.847971489
246,0.0
247,0.135541404382377
248,1320924.47320911
249,0.0
250,0.136629646054783
251,563925.847971489
252,0.0
253,0.135541404382377
254,2467993.37007852
255,0.0
256,0.130168435350309
329,0.0
330,0.0
331,9.02645396852066
364,0.0
365,0.0
366,15.548053754747
399,0.0
400,0.0
401,15.3995891433359
434,0.0
435,0.0
436,15.5293585109865
469,0.0
470,0.0
471,15.3995891433359
504,0.0
505,0.0
506,17.3698729847374
2,1, 1,21, 0,21, 0.00,60.00,WinterDesignDay
6,-18.1
7,0.0
8,0.0
9,0.0
10,0.0
11,0.0
73,0.0
95,0.0
117,0.0
139,0.0
161,0.0
193,0.0
205,0.0
217,0.0
229,0.0
241,0.0
242,1321658.8445457
243,0.0
244,0.136638494365041
245,563925.847970427
246,0.0
247,0.135541404382345
248,1320924.47320669
249,0.0
250,0.136629646054754
251,563925.847970428
252,0.0
253,0.135541404382346
254,2467993.37007417
255,0.0
256,0.130168435350281
329,0.0
330,0.0
331,9.02645396824405
364,0.0
365,0.0
366,15.5480537546856
399,0.0
400,0.0
401,15.3995891432728
434,0.0
435,0.0
436,15.5293585109248
469,0.0
470,0.0
471,15.3995891432729
504,0.0
505,0.0
506,17.3698729846749
2,1, 1,21, 0,22, 0.00,60.00,WinterDesignDay
6,-18.1
7,0.0
8,0.0
9,0.0
10,0.0
11,0.0
73,0.0
95,0.0
117,0.0
139,0.0
161,0.0
193,0.0
205,0.0
217,0.0
229,0.0
241,0.0
242,1321658.84454357
243,0.0
244,0.136638494365016
245,563925.847969494
246,0.0
247,0.13554140438232
248,1320924.47320456
249,0.0
250,0.13662964605473
251,563925.847969494
252,0.0
253,0.135541404382316
254,2467993.37007035
255,0.0
256,0.130168435350255
329,0.0
330,0.0
331,9.02645396800096
364,0.0
365,0.0
366,15.5480537546316
399,0.0
400,0.0
401,15.3995891432174
434,0.0
435,0.0
436,15.5293585108706
469,0.0
470,0.0
471,15.3995891432174
504,0.0
505,0.0
506,17.3698729846199
2,1, 1,21, 0,23, 0.00,60.00,WinterDesignDay
6,-18.1
7,0.0
8,0.0
9,0.0
10,0.0
11,0.0
73,0.0
95,0.0
117,0.0
139,0.0
161,0.0
193,0.0
205,0.0
217,0.0
229,0.0
241,0.0
242,1321658.84454171
243,0.0
244,0.136638494364993
245,563925.847968674
246,0.0
247,0.1355414043823
248,1320924.47320268
249,0.0
250,0.136629646054704
251,563925.847968674
252,0.0
253,0.135541404382297
254,2467993.37006699
255,0.0
256,0.130168435350235
329,0.0
330,0.0
331,9.02645396778733
364,0.0
365,0.0
366,15.5480537545842
399,0.0
400,0.0
401,15.3995891431687
434,0.0
435,0.0
436,15.5293585108229
469,0.0
470,0.0
471,15.3995891431687
504,0.0
505,0.0
506,17.3698729845717
2,1, 1,21, 0,24, 0.00,60.00,WinterDesignDay
6,-18.1
7,0.0
8,0.0
9,0.0
10,0.0
11,0.0
73,0.0
95,0.0
117,0.0
139,0.0
161,0.0
193,0.0
205,0.0
217,0.0
229,0.0
241,0.0
242,1321658.84454007
243,0.0
244,0.136638494364973
245,563925.847967953
246,0.0
247,0.135541404382277
248,1320924.47320104
249,0.0
250,0.136629646054686
251,563925.847967953
252,0.0
253,0.135541404382276
254,2467993.37006404
255,0.0
256,0.130168435350211
329,0.0
330,0.0
331,9.0264539675996
364,0.0
365,0.0
366,15.5480537545425
399,0.0
400,0.0
401,15.3995891431259
434,0.0
435,0.0
436,15.529358510781
469,0.0
470,0.0
471,15.3995891431259
504,0.0
505,0.0
506,17.3698729845293
1,CHICAGO_IL_USA COOLING 1% CONDITIONS DB=>MWB,  37.42,  -5.90,   1.00,  31.00
2,1, 7,21, 0, 1, 0.00,60.00,SummerDesignDay
6,21.95325
7,0.0
8,0.0
9,0.0
10,0.0
11,0.0
73,285120.
95,123120.
117,285120.
139,123120.
161,533520.
193,190080.
205,82080.
217,190080.
229,82080.
241,355680.
242,102595.383320474
243,0.0
244,0.142765926791961
245,44780.9252407542
246,0.0
247,0.141713032300915
248,104367.440261317
249,0.0
250,0.142783930796542
251,51314.6994438011
252,0.0
253,0.141871519449431
254,186215.879630737
255,0.0
256,0.135178361007327
329,0.0
330,0.0
331,27.9259481039494
364,0.0
365,0.0
366,24.5211927176823
399,0.0
400,0.0
401,24.5685520754471
434,0.0
435,0.0
436,24.5655193675361
469,0.0
470,0.0
471,24.9498964033113
504,0.0
505,0.0
506,24.5843752621998
2,1, 7,21, 0, 2, 0.00,60.00,SummerDesignDay
6,21.4355
7,0.0
8,0.0
9,0.0
10,0.0
11,0.0
73,285120.
95,123120.
117,285120.
139,123120.
161,533520.
193,190080.
205,82080.
217,190080.
229,82080.
241,355680.
242,108198.437036744
243,0.0
244,0.142856321952362
245,46972.095550237
246,0.0
247,0.141797020297242
248,108996.676442895
249,0.0
250,0.142863053635514
251,50685.9384544012
252,0.0
253,0.141880214781767
254,198958.203278007
255,0.0
256,0.135281313055935
329,0.0
330,0.0
331,26.9999973405929
364,0.0
365,0.0
366,24.1388605238191
399,0.0
400,0.0
401,24.173894044033
434,0.0
435,0.0
436,24.1587925259392
469,0.0
470,0.0
471,24.3902655396937
504,0.0
505,0.0
506,24.2416387810347
2,1, 7,21, 0, 3, 0.00,60.00,SummerDesignDay
6,21.067625
7,0.0
8,0.0
9,0.0
10,0.0
11,0.0
73,285120.
95,123120.
117,285120.
139,123120.
161,533520.
193,190080.
205,82080.
217,190080.
229,82080.
241,355680.
242,111180.643711843
243,0.0
244,0.142912212337979
245,48051.4413297115
246,0.0
247,0.141847084056335
248,111404.551452114
249,0.0
250,0.142912433643726
251,50167.7684695747
252,0.0
253,0.141888558425821
254,206449.980867975
255,0.0
256,0.135347940654044
329,0.0
330,0.0
331,26.2023695402199
364,0.0
365,0.0
366,23.8419831423182
399,0.0
400,0.0
401,23.8654087257825
434,0.0
435,0.0
436,23.8475674775193
469,0.0
470,0.0
471,23.9885516707789
504,0.0
505,0.0
506,23.9757306791234
2,1, 7,21, 0, 4, 0.00,60.00,SummerDesignDay
6,20.740625
7,0.0
8,0.0
9,0.0
10,0.0
11,0.0
73,285120.
95,123120.
117,285120.
139,123120.
161,533520.
193,190080.
205,82080.
217,190080.
229,82080.
241,355680.
242,114928.328433159
243,0.0
244,0.142974626151339
245,49490.3167822004
246,0.0
247,0.141904497739424
248,114810.738756764
249,0.0
250,0.142971077263386
251,50698.6155541466
252,0.0
253,0.141923040439503
254,214818.588403849
255,0.0
256,0.135417857117782
329,0.0
330,0.0
331,25.520987073827
364,0.0
365,0.0
366,23.6052463674462
399,0.0
400,0.0
401,23.6189237597618
434,0.0
435,0.0
436,23.6023179563418
469,0.0
470,0.0
471,23.6891530164916
504,0.0
505,0.0
506,23.7631694708386
2,1, 7,21, 0, 5, 0.00,60.00,SummerDesignDay
6,20.48175
7,0.0
8,0.0
9,0.0
10,0.0
11,0.0
73,285120.
95,123120.
117,285120.
139,123120.
161,533520.
193,190080.
205,82080.
217,190080.
229,82080.
241,355680.
242,117726.852886967
243,0.0
244,0.143023339603808
245,50553.143460101
246,0.0
247,0.141949167493614
248,117402.642741041
249,0.0
250,0.14301759478427
251,51244.0968901166
252,0.0
253,0.141955325132597
254,221152.933829019
255,0.0
256,0.135472685732243
329,0.0
330,0.0
331,24.9422200675162
364,0.0
365,0.0
366,23.4135025218161
399,0.0
400,0.0
401,23.4192388286832
434,0.0
435,0.0
436,23.4054343109423
469,0.0
470,0.0
471,23.4593626955019
504,0.0
505,0.0
506,23.5906320976817
2,1, 7,21, 0, 6, 0.00,60.00,SummerDesignDay
6,20.53625
7,0.0
8,0.0
9,0.0
10,0.0
11,0.0
73,570240.
95,246240.
117,570240.
139,246240.
161,1067040.
193,380160.
205,164160.
217,380160.
229,164160.
241,711360.
242,113161.629157967
243,0.0
244,0.142981656013297
245,48339.4872010567
246,0.0
247,0.141900766040475
248,112728.424413546
249,0.0
250,0.142974849722715
251,48735.2396798172
252,0.0
253,0.141900452592368
254,215376.864132517
255,0.0
256,0.135448042966693
329,0.0
330,0.0
331,24.4655767032189
364,0.0
365,0.0
366,23.3549021878845
399,0.0
400,0.0
401,23.3457040461029
434,0.0
435,0.0
436,23.3441191547201
469,0.0
470,0.0
471,23.3686882936783
504,0.0
505,0.0
506,23.5645392142007
2,1, 7,21, 0, 7, 0.00,60.00,SummerDesignDay
6,21.094875
7,0.0
8,0.0
9,0.0
10,0.0
11,0.0
73,570240.
95,246240.
117,570240.
139,246240.
161,1067040.
193,380160.
205,164160.
217,380160.
229,164160.
241,711360.
242,89862.8926516304
243,0.0
244,0.142747100146756
245,41408.3428963563
246,0.0
247,0.141753109330842
248,91825.8390354531
249,0.0
250,0.142769360185578
251,38418.1023264498
252,0.0
253,0.141660643997912
254,173951.723602055
255,0.0
256,0.13522539449008
329,0.0
330,0.0
331,24.0944129050737
364,0.0
365,0.0
366,23.3377142230727
399,0.0
400,0.0
401,23.5063710992301
434,0.0
435,0.0
436,23.3867176115638
469,0.0
470,0.0
471,23.3322102380322
504,0.0
505,0.0
506,23.5455829059039
2,1, 7,21, 0, 8, 0.00,60.00,SummerDesignDay
6,22.539125
7,2.2
8,1.
9,2.2
10,1.
11,4.
73,1710720.
95,738720.
117,1710720.
139,738720.
161,3201120.
193,1140480.
205,492480.
217,1140480.
229,492480.
241,2134080.
242,60511.1291262456
243,0.0
244,0.142570977529712
245,69185.2352516041
246,0.0
247,0.142701438538805
248,79787.3816879985
249,0.0
250,0.14280174581522
251,25441.8563699565
252,0.0
253,0.141478640981466
254,113734.903969065
255,0.0
256,0.135007500995073
329,0.0
330,0.0
331,24.0042702137289
364,0.0
365,0.0
366,24.057084149138
399,0.0
400,0.0
401,26.5878479591751
434,0.0
435,0.0
436,24.5403504313561
469,0.0
470,0.0
471,24.0283253234392
504,0.0
505,0.0
506,24.1495934668811
2,1, 7,21, 0, 9, 0.00,60.00,SummerDesignDay
6,24.528375
7,10.45
8,4.75
9,10.45
10,4.75
11,19.
73,5132160.
95,2216160.
117,5132160.
139,2216160.
161,9603360.
193,3421440.
205,1477440.
217,3421440.
229,1477440.
241,6402240.
242,68454.5018652485
243,0.0
244,0.142636860879632
245,107159.530408865
246,0.0
247,0.14371820685726
248,90919.5685799544
249,0.0
250,0.142904781915763
251,27155.7020891912
252,0.0
253,0.141496356755551
254,128804.218446184
255,0.0
256,0.135076506676916
329,0.0
330,0.0
331,24.3993897327814
364,0.0
365,0.0
366,26.2574924862595
399,0.0
400,0.0
401,30.8392736759223
434,0.0
435,0.0
436,26.8241986136995
469,0.0
470,0.0
471,26.1289786804794
504,0.0
505,0.0
506,26.3649016476
2,1, 7,21, 0,10, 0.00,60.00,SummerDesignDay
6,26.463125
7,10.45
8,4.75
9,10.45
10,4.75
11,19.
73,5132160.
95,2216160.
117,5132160.
139,2216160.
161,9603360.
193,3421440.
205,1477440.
217,3421440.
229,1477440.
241,6402240.
242,55420.3453556134
243,0.0
244,0.142364450139319
245,109667.174310661
246,0.0
247,0.143638320004966
248,71406.9819375684
249,0.0
250,0.142551700683414
251,20921.1079034523
252,0.0
253,0.141205352827189
254,88698.2856814321
255,0.0
256,0.134710072045821
329,0.0
330,0.0
331,25.2774713411713
364,0.0
365,0.0
366,27.8720983976852
399,0.0
400,0.0
401,32.9628320022832
434,0.0
435,0.0
436,28.2779757120355
469,0.0
470,0.0
471,27.7043877579088
504,0.0
505,0.0
506,27.7360990215681
2,1, 7,21, 0,11, 0.00,60.00,SummerDesignDay
6,28.179875
7,10.45
8,4.75
9,10.45
10,4.75
11,19.
73,5132160.
95,2216160.
117,5132160.
139,2216160.
161,9603360.
193,3421440.
205,1477440.
217,3421440.
229,1477440.
241,6402240.
242,27517.8425040982
243,0.0
244,0.141825710548636
245,97157.1409661515
246,0.0
247,0.143025077527987
248,38257.9750778997
249,0.0
250,0.141946286809444
251,8956.78384099426
252,0.0
253,0.140665805804925
254,19337.4710938427
255,3587.04855936814
256,0.134052482296663
329,0.0
330,0.0
331,26.3918087251657
364,0.0
365,0.0
366,28.884242364192
399,0.0
400,0.0
401,33.9709779272233
434,0.0
435,0.0
436,29.158490904955
469,0.0
470,0.0
471,28.7152137099861
504,0.0
505,0.0
506,28.4084229332229
2,1, 7,21, 0,12, 0.00,60.00,SummerDesignDay
6,29.47425
7,10.45
8,4.75
9,10.45
10,4.75
11,19.
73,5132160.
95,2216160.
117,5132160.
139,2216160.
161,9603360.
193,3421440.
205,1477440.
217,3421440.
229,1477440.
241,6402240.
242,7428.86848423377
243,0.0
244,0.141661959179285
245,75662.1334914503
246,0.0
247,0.142496000104519
248,14335.2469423324
249,0.0
250,0.141737465171011
251,1095.44560653515
252,633.588983814788
253,0.140507364094839
254,0.0
255,37725.3705339843
256,0.133786495538325
329,0.0
330,0.0
331,27.7280480753326
364,0.0
365,0.0
366,29.6666270514971
399,0.0
400,0.0
401,34.003910204464
434,0.0
435,0.0
436,29.8437410340101
469,0.0
470,0.0
471,29.5037285798014
504,0.0
505,0.0
506,28.9298002102785
2,1, 7,21, 0,13, 0.00,60.00,SummerDesignDay
6,30.428
7,5.5
8,2.5
9,5.5
10,2.5
11,10.
73,5132160.
95,2216160.
117,5132160.
139,2216160.
161,9603360.
193,3421440.
205,1477440.
217,3421440.
229,1477440.
241,6402240.
242,0.0
243,12846.5000944734
244,0.141376872943151
245,46485.6695348093
246,0.0
247,0.141628534690087
248,0.0
249,8802.72769216673
250,0.14141810304916
251,0.0
252,8007.83476242044
253,0.140229208453232
254,0.0
255,90694.1080176947
256,0.133410955832083
329,0.0
330,0.0
331,29.1570506809556
364,0.0
365,0.0